 Q-Chem 5.3, Q-Chem, Inc., Pleasanton, CA (2020)
 Q-Chem 5.3.1 for Intel X86 EM64T Linux

User input:
--------------------------------------------------------------
$comment
 TDDFT calculation
$end

$molecule
0 1
C        11.0300667174   -1.2169705447   -0.1937477834
C        11.1453429427    0.0170263874    0.3678343298
C         9.9069206243    0.7115761620    0.4190521091
C         8.8684243232   -0.0020600738   -0.1134866997
S         9.4153876149   -1.5466699960   -0.6864620168
C         4.9943011453    0.5852263644   -0.3043153483
C         5.6170450309    1.7704340056   -0.5868943860
C         7.0298398337    1.6805868706   -0.5525642251
C         7.4831390468    0.4269482884   -0.2448723209
S         6.1578061900   -0.6583272416    0.0254942725
C        -4.8002708675   -0.7404337471    0.1900569585
C        -5.4231766728   -1.9261953891    0.4699500053
C        -6.8359636244   -1.8362589847    0.4354623129
C        -7.2891933967   -0.5818589505    0.1306437404
S        -5.9637512756    0.5038872804   -0.1371591647
C       -10.8359090159    1.0626070297    0.0812603699
C       -10.9515010700   -0.1712040459   -0.4806707743
C        -9.7131982825   -0.8658745934   -0.5325320852
C        -8.6744483292   -0.1525646592    0.0000217500
S        -9.2210635405    1.3918787298    0.5737112120
C        -1.0845811536   -0.8169467038   -0.1836050749
C        -1.0925063696    0.5217950999    0.2712548956
C         0.0664200393    1.2698145476    0.4029478321
C         1.2786328609    0.6619561921    0.0694600432
C         1.2865598001   -0.6768934440   -0.3854304084
C         0.1277330086   -1.4249511228   -0.5168752362
C        -2.4098133682   -1.3594863150   -0.2685467894
C        -3.3687772499   -0.4887057236    0.1330204720
S        -2.7100645429    1.0609517346    0.6402968336
C         2.6039002578    1.2044073603    0.1543350051
C         3.5627714548    0.3335446174   -0.2472087105
S         2.9040529034   -1.2160573909   -0.7546414430
O         0.0174594922    2.5562466760    0.8614261971
C         0.0119313546    3.5332650022   -0.1739368643
O         0.1770362150   -2.7114897745   -0.9749177990
C         0.1788379895   -3.6881185397    0.0609353761
H        11.8002181496   -1.9567210396   -0.3498529975
H        12.0770146933    0.4143209706    0.7469932392
H         9.7760554557    1.6927130435    0.8557869162
H         5.0708343921    2.6660025766   -0.8512330200
H         7.6988666777    2.4981960140   -0.7846727259
H        -4.8771510227   -2.8224857889    0.7322394159
H        -7.5050489546   -2.6542805468    0.6659296378
H       -11.6059414567    1.8023734724    0.2378591989
H       -11.8833264200   -0.5681635140   -0.8598035352
H        -9.5824685098   -1.8467212879   -0.9699535072
H        -2.6278168370   -2.3456127232   -0.6549346449
H         2.8221403208    2.1905322759    0.5405634518
H        -0.0492111432    4.5034315577    0.3170100509
H        -0.8520157684    3.4003881897   -0.8334302073
H         0.9305930779    3.4810657997   -0.7684942724
H         0.2436564280   -4.6584029308   -0.4292838913
H        -0.7427031004   -3.6369350201    0.6510953769
H         1.0393576532   -3.5534795150    0.7244862514
$end

$rem
METHOD         CAM-B3LYP
BASIS          def2-TZVPPD
CIS_N_ROOTS    10
SOLVENT_METHOD PCM
SCF_ALGORITHM  DIIS
SCF_MAX_CYCLES 100
THRESH         14
S2THRESH       15
MEM_TOTAL      100000

$end

$pcm
theory          iefpcm
method          swig
printlevel      1
$end

$solvent
dielectric 4.81
$end

--------------------------------------------------------------

             Standard Nuclear Orientation (Angstroms)
    I     Atom           X                Y                Z
 ----------------------------------------------------------------
    1      C      11.0300667174    -1.2169705447    -0.1937477834
    2      C      11.1453429427     0.0170263874     0.3678343298
    3      C       9.9069206243     0.7115761620     0.4190521091
    4      C       8.8684243232    -0.0020600738    -0.1134866997
    5      S       9.4153876149    -1.5466699960    -0.6864620168
    6      C       4.9943011453     0.5852263644    -0.3043153483
    7      C       5.6170450309     1.7704340056    -0.5868943860
    8      C       7.0298398337     1.6805868706    -0.5525642251
    9      C       7.4831390468     0.4269482884    -0.2448723209
   10      S       6.1578061900    -0.6583272416     0.0254942725
   11      C      -4.8002708675    -0.7404337471     0.1900569585
   12      C      -5.4231766728    -1.9261953891     0.4699500053
   13      C      -6.8359636244    -1.8362589847     0.4354623129
   14      C      -7.2891933967    -0.5818589505     0.1306437404
   15      S      -5.9637512756     0.5038872804    -0.1371591647
   16      C     -10.8359090159     1.0626070297     0.0812603699
   17      C     -10.9515010700    -0.1712040459    -0.4806707743
   18      C      -9.7131982825    -0.8658745934    -0.5325320852
   19      C      -8.6744483292    -0.1525646592     0.0000217500
   20      S      -9.2210635405     1.3918787298     0.5737112120
   21      C      -1.0845811536    -0.8169467038    -0.1836050749
   22      C      -1.0925063696     0.5217950999     0.2712548956
   23      C       0.0664200393     1.2698145476     0.4029478321
   24      C       1.2786328609     0.6619561921     0.0694600432
   25      C       1.2865598001    -0.6768934440    -0.3854304084
   26      C       0.1277330086    -1.4249511228    -0.5168752362
   27      C      -2.4098133682    -1.3594863150    -0.2685467894
   28      C      -3.3687772499    -0.4887057236     0.1330204720
   29      S      -2.7100645429     1.0609517346     0.6402968336
   30      C       2.6039002578     1.2044073603     0.1543350051
   31      C       3.5627714548     0.3335446174    -0.2472087105
   32      S       2.9040529034    -1.2160573909    -0.7546414430
   33      O       0.0174594922     2.5562466760     0.8614261971
   34      C       0.0119313546     3.5332650022    -0.1739368643
   35      O       0.1770362150    -2.7114897745    -0.9749177990
   36      C       0.1788379895    -3.6881185397     0.0609353761
   37      H      11.8002181496    -1.9567210396    -0.3498529975
   38      H      12.0770146933     0.4143209706     0.7469932392
   39      H       9.7760554557     1.6927130435     0.8557869162
   40      H       5.0708343921     2.6660025766    -0.8512330200
   41      H       7.6988666777     2.4981960140    -0.7846727259
   42      H      -4.8771510227    -2.8224857889     0.7322394159
   43      H      -7.5050489546    -2.6542805468     0.6659296378
   44      H     -11.6059414567     1.8023734724     0.2378591989
   45      H     -11.8833264200    -0.5681635140    -0.8598035352
   46      H      -9.5824685098    -1.8467212879    -0.9699535072
   47      H      -2.6278168370    -2.3456127232    -0.6549346449
   48      H       2.8221403208     2.1905322759     0.5405634518
   49      H      -0.0492111432     4.5034315577     0.3170100509
   50      H      -0.8520157684     3.4003881897    -0.8334302073
   51      H       0.9305930779     3.4810657997    -0.7684942724
   52      H       0.2436564280    -4.6584029308    -0.4292838913
   53      H      -0.7427031004    -3.6369350201     0.6510953769
   54      H       1.0393576532    -3.5534795150     0.7244862514
 ----------------------------------------------------------------

   14   -3617.3203247372      7.79e-09  Convergence criterion met
 Total energy in the final basis set =    -3617.3203247372

         TDDFT/TDA Excitation Energies
 ---------------------------------------------------

 Excited state   1: excitation energy (eV) =    2.4318
 Total energy for state  1:                 -3617.23095915 au
    Multiplicity: Triplet
    Trans. Mom.:  0.0000 X   0.0000 Y   0.0000 Z
    Strength   :     0.0000000000
    D(  147) --> V(    2) amplitude = -0.3301
    D(  149) --> V(    1) amplitude =  0.8479

 Excited state   2: excitation energy (eV) =    2.7494
 Total energy for state  2:                 -3617.21928770 au
    Multiplicity: Triplet
    Trans. Mom.:  0.0000 X   0.0000 Y   0.0000 Z
    Strength   :     0.0000000000
    D(  147) --> V(    1) amplitude =  0.5972
    D(  148) --> V(    2) amplitude = -0.2768
    D(  149) --> V(    2) amplitude = -0.5770

 Excited state   3: excitation energy (eV) =    3.0249
 Total energy for state  3:                 -3617.20916148 au
    Multiplicity: Triplet
    Trans. Mom.:  0.0000 X   0.0000 Y   0.0000 Z
    Strength   :     0.0000000000
    D(  147) --> V(    2) amplitude = -0.4800
    D(  148) --> V(    1) amplitude =  0.5842
    D(  149) --> V(    3) amplitude =  0.4042

 Excited state   4: excitation energy (eV) =    3.4522
 Total energy for state  4:                 -3617.19345822 au
    Multiplicity: Singlet
    Trans. Mom.: -5.3393 X   0.5308 Y   0.2929 Z
    Strength   :     2.4422335258
    D(  147) --> V(    2) amplitude = -0.2957
    D(  149) --> V(    1) amplitude =  0.9228

 Excited state   5: excitation energy (eV) =    3.4779
 Total energy for state  5:                 -3617.19251404 au
    Multiplicity: Triplet
    Trans. Mom.:  0.0000 X   0.0000 Y   0.0000 Z
    Strength   :     0.0000000000
    D(  145) --> V(    1) amplitude =  0.3444
    D(  146) --> V(    2) amplitude = -0.3165
    D(  147) --> V(    3) amplitude =  0.4307
    D(  148) --> V(    2) amplitude = -0.2646
    D(  149) --> V(    4) amplitude = -0.3333
    D(  149) --> V(    6) amplitude = -0.2225

 Excited state   6: excitation energy (eV) =    3.5526
 Total energy for state  6:                 -3617.18976919 au
    Multiplicity: Triplet
    Trans. Mom.:  0.0000 X   0.0000 Y   0.0000 Z
    Strength   :     0.0000000000
    D(  146) --> V(    1) amplitude = -0.4163
    D(  147) --> V(    4) amplitude =  0.2508
    D(  148) --> V(    1) amplitude =  0.5294
    D(  148) --> V(    3) amplitude = -0.3843

 Excited state   7: excitation energy (eV) =    3.8259
 Total energy for state  7:                 -3617.17972460 au
    Multiplicity: Triplet
    Trans. Mom.:  0.0000 X   0.0000 Y   0.0000 Z
    Strength   :     0.0000000000
    D(  139) --> V(    1) amplitude = -0.2307
    D(  148) --> V(    1) amplitude = -0.2669
    D(  148) --> V(    5) amplitude = -0.4566
    D(  149) --> V(    5) amplitude =  0.4808

 Excited state   8: excitation energy (eV) =    3.9349
 Total energy for state  8:                 -3617.17571861 au
    Multiplicity: Triplet
    Trans. Mom.:  0.0000 X   0.0000 Y   0.0000 Z
    Strength   :     0.0000000000
    D(  139) --> V(    1) amplitude = -0.2435
    D(  140) --> V(    2) amplitude = -0.2127
    D(  146) --> V(    1) amplitude =  0.2222
    D(  146) --> V(    3) amplitude = -0.2817
    D(  148) --> V(    5) amplitude =  0.3175
    D(  149) --> V(    5) amplitude = -0.3319
    D(  149) --> V(   14) amplitude = -0.2683

 Excited state   9: excitation energy (eV) =    3.9613
 Total energy for state  9:                 -3617.17475135 au
    Multiplicity: Triplet
    Trans. Mom.:  0.0000 X   0.0000 Y   0.0000 Z
    Strength   :     0.0000000000
    D(  139) --> V(    2) amplitude =  0.2187
    D(  140) --> V(    1) amplitude =  0.3429
    D(  148) --> V(    2) amplitude = -0.3107
    D(  148) --> V(    4) amplitude =  0.2354
    D(  149) --> V(   19) amplitude = -0.2517

 Excited state  10: excitation energy (eV) =    3.9815
 Total energy for state 10:                 -3617.17400758 au
    Multiplicity: Singlet
    Trans. Mom.: -1.4849 X  -0.5895 Y  -0.3007 Z
    Strength   :     0.2578002155
    D(  148) --> V(    1) amplitude =  0.8492
    D(  149) --> V(    5) amplitude = -0.2392

 Excited state  11: excitation energy (eV) =    4.0357
 Total energy for state 11:                 -3617.17201547 au
    Multiplicity: Singlet
    Trans. Mom.: -0.0179 X  -0.0039 Y  -0.0018 Z
    Strength   :     0.0000334817
    D(  147) --> V(    1) amplitude = -0.6234
    D(  148) --> V(    2) amplitude =  0.2330
    D(  149) --> V(    2) amplitude =  0.6712

 Excited state  12: excitation energy (eV) =    4.2313
 Total energy for state 12:                 -3617.16482573 au
    Multiplicity: Triplet
    Trans. Mom.:  0.0000 X   0.0000 Y   0.0000 Z
    Strength   :     0.0000000000
    D(  141) --> V(    1) amplitude = -0.6038
    D(  141) --> V(    2) amplitude =  0.2300
    D(  142) --> V(    2) amplitude = -0.5363

 Excited state  13: excitation energy (eV) =    4.2326
 Total energy for state 13:                 -3617.16478138 au
    Multiplicity: Triplet
    Trans. Mom.:  0.0000 X   0.0000 Y   0.0000 Z
    Strength   :     0.0000000000
    D(  141) --> V(    2) amplitude = -0.5296
    D(  142) --> V(    1) amplitude = -0.6007
    D(  142) --> V(    2) amplitude = -0.2344

 Excited state  14: excitation energy (eV) =    4.6032
 Total energy for state 14:                 -3617.15115898 au
    Multiplicity: Singlet
    Trans. Mom.:  0.0007 X   0.0004 Y   0.0004 Z
    Strength   :     0.0000000850
    D(  147) --> V(    1) amplitude =  0.5065
    D(  148) --> V(    2) amplitude = -0.4495
    D(  149) --> V(    2) amplitude =  0.6022

 Excited state  15: excitation energy (eV) =    4.6315
 Total energy for state 15:                 -3617.15012061 au
    Multiplicity: Singlet
    Trans. Mom.:  1.3656 X  -0.2784 Y   0.1428 Z
    Strength   :     0.2227208933
    D(  146) --> V(    1) amplitude = -0.3903
    D(  147) --> V(    2) amplitude =  0.4739
    D(  148) --> V(    3) amplitude = -0.2868
    D(  148) --> V(    5) amplitude =  0.2192
    D(  149) --> V(    3) amplitude = -0.3875
    D(  149) --> V(    5) amplitude = -0.4049

 Excited state  16: excitation energy (eV) =    4.8032
 Total energy for state 16:                 -3617.14380889 au
    Multiplicity: Singlet
    Trans. Mom.:  0.8438 X   0.5424 Y  -0.0076 Z
    Strength   :     0.1184245151
    D(  147) --> V(    4) amplitude = -0.2599
    D(  148) --> V(    1) amplitude = -0.2736
    D(  149) --> V(    3) amplitude =  0.5784
    D(  149) --> V(    5) amplitude = -0.4718

 Excited state  17: excitation energy (eV) =    4.8779
 Total energy for state 17:                 -3617.14106562 au
    Multiplicity: Singlet
    Trans. Mom.:  0.0049 X   0.0044 Y  -0.0005 Z
    Strength   :     0.0000052035
    D(  147) --> V(    3) amplitude = -0.4615
    D(  148) --> V(    2) amplitude =  0.4169
    D(  149) --> V(    4) amplitude =  0.4954
    D(  149) --> V(    6) amplitude =  0.2358

 Excited state  18: excitation energy (eV) =    5.0152
 Total energy for state 18:                 -3617.13601954 au
    Multiplicity: Singlet
    Trans. Mom.:  0.0030 X   0.0020 Y   0.0001 Z
    Strength   :     0.0000015838
    D(  147) --> V(    1) amplitude = -0.3340
    D(  148) --> V(    2) amplitude = -0.3354
    D(  149) --> V(    4) amplitude =  0.3526
    D(  149) --> V(   10) amplitude =  0.4359
    D(  149) --> V(   13) amplitude =  0.2602

 Excited state  19: excitation energy (eV) =    5.1041
 Total energy for state 19:                 -3617.13275170 au
    Multiplicity: Singlet
    Trans. Mom.: -0.3092 X  -0.7934 Y  -0.1237 Z
    Strength   :     0.0925870385
    D(  141) --> V(    1) amplitude = -0.2238
    D(  146) --> V(    1) amplitude = -0.3224
    D(  148) --> V(    3) amplitude = -0.2123
    D(  148) --> V(    5) amplitude = -0.2334
    D(  149) --> V(    5) amplitude =  0.4263
    D(  149) --> V(   12) amplitude =  0.3015
    D(  149) --> V(   15) amplitude =  0.2612

 Excited state  20: excitation energy (eV) =    5.1310
 Total energy for state 20:                 -3617.13176474 au
    Multiplicity: Singlet
    Trans. Mom.:  0.0031 X   0.0134 Y   0.0011 Z
    Strength   :     0.0000239509
    D(  141) --> V(    2) amplitude =  0.2627
    D(  142) --> V(    1) amplitude =  0.3625
    D(  146) --> V(    2) amplitude =  0.2679
    D(  148) --> V(    2) amplitude = -0.2595
    D(  148) --> V(    4) amplitude =  0.2373
    D(  149) --> V(    6) amplitude =  0.4904
    D(  149) --> V(   10) amplitude = -0.2440

 ---------------------------------------------------

                    Orbital Energies (a.u.)
 --------------------------------------------------------------

 Alpha MOs
 -- Occupied --
-88.9640 -88.9640 -88.9606 -88.9606 -88.9586 -88.9586 -19.2264 -19.2264
-10.3144 -10.3144 -10.2982 -10.2982 -10.2933 -10.2933 -10.2925 -10.2925
-10.2917 -10.2917 -10.2899 -10.2899 -10.2862 -10.2862 -10.2747 -10.2747
-10.2684 -10.2684 -10.2583 -10.2583 -10.2578 -10.2578 -10.2562 -10.2562
-10.2538 -10.2538 -10.2532 -10.2532  -8.0414  -8.0414  -8.0379  -8.0379
 -8.0360  -8.0359  -6.0047  -6.0047  -6.0012  -6.0012  -6.0012  -6.0012
 -5.9998  -5.9997  -5.9986  -5.9986  -5.9975  -5.9975  -5.9961  -5.9961
 -5.9952  -5.9952  -5.9923  -5.9923  -1.1503  -1.1490  -0.9980  -0.9926
 -0.9857  -0.9751  -0.9660  -0.9594  -0.9068  -0.8688  -0.8637  -0.8527
 -0.8328  -0.8320  -0.8273  -0.8203  -0.8169  -0.8136  -0.7962  -0.7956
 -0.7817  -0.7686  -0.7427  -0.7141  -0.6807  -0.6750  -0.6609  -0.6607
 -0.6538  -0.6371  -0.6345  -0.6258  -0.6106  -0.6081  -0.6009  -0.5996
 -0.5871  -0.5846  -0.5802  -0.5656  -0.5487  -0.5408  -0.5398  -0.5367
 -0.5286  -0.5234  -0.5106  -0.4919  -0.4908  -0.4904  -0.4885  -0.4821
 -0.4808  -0.4791  -0.4784  -0.4709  -0.4699  -0.4697  -0.4611  -0.4607
 -0.4510  -0.4469  -0.4469  -0.4392  -0.4389  -0.4348  -0.4263  -0.4257
 -0.4223  -0.4187  -0.4138  -0.4106  -0.4043  -0.4034  -0.3788  -0.3575
 -0.3556  -0.3529  -0.3387  -0.3332  -0.3199  -0.3198  -0.3160  -0.3159
 -0.3157  -0.2986  -0.2672  -0.2656  -0.2412

          Ground-State Mulliken Net Atomic Charges

     Atom                 Charge (a.u.)
  ----------------------------------------
      1 C                    -0.083387
      2 C                    -0.294192
      3 C                    -0.366344
      4 C                     0.439097
      5 S                    -0.180521
      6 C                     0.327448
      7 C                    -0.211788
      8 C                    -0.429008
      9 C                     0.309091
     10 S                    -0.246688
     11 C                     0.327531
     12 C                    -0.211074
     13 C                    -0.427868
     14 C                     0.308787
     15 S                    -0.247274
     16 C                    -0.083708
     17 C                    -0.293919
     18 C                    -0.366295
     19 C                     0.439239
     20 S                    -0.180526
     21 C                     0.344330
     22 C                     0.407929
     23 C                    -0.123743
     24 C                     0.344598
     25 C                     0.407988
     26 C                    -0.123740
     27 C                    -0.265895
     28 C                     0.280637
     29 S                    -0.357023
     30 C                    -0.265274
     31 C                     0.280848
     32 S                    -0.357042
     33 O                    -0.597086
     34 C                    -0.495788
     35 O                    -0.597017
     36 C                    -0.496229
     37 H                     0.189564
     38 H                     0.132664
     39 H                     0.159411
     40 H                     0.127582
     41 H                     0.143013
     42 H                     0.127365
     43 H                     0.142990
     44 H                     0.189512
     45 H                     0.132665
     46 H                     0.159236
     47 H                     0.174436
     48 H                     0.174074
     49 H                     0.185650
     50 H                     0.208062
     51 H                     0.221830
     52 H                     0.185576
     53 H                     0.221881
     54 H                     0.208395
  ----------------------------------------
  Sum of atomic charges =     0.000000

                    Cartesian Multipole Moments
 -----------------------------------------------------------------
    Charge (ESU x 10^10)
                 0.0000
    Dipole Moment (Debye)
         X      -0.0056      Y      -0.0004      Z      -0.0022
       Tot       0.0060
    Quadrupole Moments (Debye-Ang)
        XX    -184.5568     XY      21.1436     YY    -222.2048
        XZ       7.0485     YZ      -6.3044     ZZ    -263.3514

 Total job time:  45823.28s(wall), 1059561.81s(cpu)
        *  Thank you very much for using Q-Chem.  Have a nice day.  *
