 Q-Chem 5.3, Q-Chem, Inc., Pleasanton, CA (2020)
 Q-Chem 5.3.1 for Intel X86 EM64T Linux

User input:
--------------------------------------------------------------
$comment
TDDFT with cam-b3lyp functional
$end

$molecule
0 1
C   10.9009195    3.2315744   -1.4595223
C    9.8976842    3.9238324   -2.1238042
C    8.6214657    3.3835893   -1.9301373
C    8.6202982    2.2611147   -1.1093738
S   10.2033387    1.9459385   -0.6287137
C    5.1490351    0.5400424   -0.3393349
C    6.1485009   -0.1552298    0.3337741
C    7.4285363    0.3711153    0.1217182
C    7.4357066    1.4822887   -0.7156229
S    5.8554263    1.8055342   -1.1981279
C   -4.7274031   -0.5595062   -0.0927069
C   -5.6982920    0.1435482   -0.7987384
C   -7.0046727   -0.1989800   -0.4371992
C   -7.0643265   -1.1674128    0.5589058
S   -5.4927899   -1.6113250    0.9791935
C  -10.6412580   -2.2318635    1.8594571
C   -9.6789092   -2.9289398    2.5772412
C   -8.3664219   -2.6323101    2.1912002
C   -8.2960516   -1.6966108    1.1654467
S   -9.8627856   -1.2436129    0.7439304
C   -0.9853590   -0.6799395    0.1356453
C   -0.9700791    0.3810742   -0.7777950
C    0.2085733    0.9784260   -1.2403239
C    1.4247131    0.4761466   -0.7251576
C    1.4137377   -0.5942755    0.1778748
C    0.2326735   -1.1952408    0.6358500
C   -2.2892778   -1.1136846    0.4360444
C   -3.2729754   -0.3808159   -0.2303333
S   -2.5412012    0.7843616   -1.2082230
C    2.7207326    0.9524276   -0.9803138
C    3.7078365    0.2449825   -0.2956938
S    2.9888888   -0.9729542    0.6284753
O    0.1224321    1.9986007   -2.1297797
C    0.6706969    1.9791487   -3.3963685
O    0.3117678   -2.2148152    1.5253883
C   -0.1730135   -2.1561567    2.8156855
H   11.9533364    3.4803170   -1.4742814
H   10.0846350    4.7986273   -2.7322451
H    7.7304198    3.8056145   -2.3761783
H    5.9637467   -1.0145916    0.9647697
H    8.3180008   -0.0469154    0.5743881
H   -5.4751131    0.8901414   -1.5494323
H   -7.8764120    0.2603972   -0.8842170
H  -11.7110438   -2.3100141    1.9981667
H   -9.9211975   -3.6322952    3.3625781
H   -7.4999552   -3.0855614    2.6543804
H   -2.5280426   -1.9245511    1.1061847
H    2.9520941    1.7935036   -1.6135374
H    0.4373015    2.9376575   -3.9034034
H    0.2208534    1.1515050   -3.9848641
H    1.7662262    1.8526832   -3.3865831
H    0.0259450   -3.1245238    3.3189268
H   -1.2593113   -1.9627167    2.8506078
H    0.3525229   -1.3536992    3.3755632
$end

$rem
JOBTYPE        opt
METHOD         wB97X-D
BASIS          6-311G(d,p)
SCF_ALGORITHM  DIIS
SCF_MAX_CYCLES 100
$end

--------------------------------------------------------------

   15   -3617.1234560210      4.79e-09  Convergence criterion met
 Total energy in the final basis set =    -3617.1234560210
   12   -3617.1538346238      5.89e-09  Convergence criterion met
 Total energy in the final basis set =    -3617.1538346238
   12   -3617.1670092200      6.76e-09  Convergence criterion met
 Total energy in the final basis set =    -3617.1670092200
   12   -3617.1692537044      4.83e-09  Convergence criterion met
 Total energy in the final basis set =    -3617.1692537044
   11   -3617.1698322982      7.61e-09  Convergence criterion met
 Total energy in the final basis set =    -3617.1698322982
   11   -3617.1701244914      5.21e-09  Convergence criterion met
 Total energy in the final basis set =    -3617.1701244914
   11   -3617.1702184412      4.73e-09  Convergence criterion met
 Total energy in the final basis set =    -3617.1702184412
   11   -3617.1702709833      4.26e-09  Convergence criterion met
   11   -3617.1721024479      4.09e-09  Convergence criterion met
 Total energy in the final basis set =    -3617.1721024479
   10   -3617.1721236412      5.30e-09  Convergence criterion met
 Total energy in the final basis set =    -3617.1721236412
   10   -3617.1721371389      5.48e-09  Convergence criterion met
 Total energy in the final basis set =    -3617.1721371389
    9   -3617.1721423376      9.90e-09  Convergence criterion met
 Total energy in the final basis set =    -3617.1721423376
    9   -3617.1721441372      6.78e-09  Convergence criterion met
 Total energy in the final basis set =    -3617.1721441372
    9   -3617.1721445806      5.03e-09  Convergence criterion met
 Total energy in the final basis set =    -3617.1721445806
 Final energy is   -3617.17214458062
 **  OPTIMIZATION CONVERGED  **
 Total job time:  1542.52s(wall), 51498.13s(cpu)
        *  Thank you very much for using Q-Chem.  Have a nice day.  *
 Q-Chem 5.3, Q-Chem, Inc., Pleasanton, CA (2020)
 Q-Chem 5.3.1 for Intel X86 EM64T Linux

User input:
--------------------------------------------------------------

$molecule
read
$end

$rem
METHOD         CAM-B3LYP
BASIS          def2-TZVPPD
CIS_N_ROOTS    10
SOLVENT_METHOD PCM
SCF_ALGORITHM  DIIS
SCF_MAX_CYCLES 100
THRESH         14
S2THRESH       15
MEM_TOTAL      100000

$end

$pcm
theory          iefpcm
method          swig
printlevel      1
$end

$solvent
dielectric 4.81
$end

--------------------------------------------------------------

             Standard Nuclear Orientation (Angstroms)
    I     Atom           X                Y                Z
 ----------------------------------------------------------------
    1      C      11.1140348396     0.6756162250     0.3414204985
    2      C      10.4611272503     1.1724130911     1.4270271359
    3      C       9.0733567126     0.8680961366     1.4167975185
    4      C       8.6904059874     0.1445171332     0.3205520199
    5      S      10.0456216132    -0.1550519775    -0.7213247799
    6      C       4.9002736771    -0.6347091808    -0.2967091584
    7      C       5.6261339663    -1.6678454316    -0.8243117281
    8      C       7.0245249581    -1.5071747305    -0.6672933692
    9      C       7.3653814757    -0.3505257828    -0.0214607921
   10      S       5.9496078103     0.5589816845     0.4009252578
   11      C      -4.8979370933     0.7489155310    -0.1122606140
   12      C      -5.6379443055     1.8386988505    -0.4824955647
   13      C      -7.0346325619     1.6286798530    -0.3768518946
   14      C      -7.3597215803     0.3797379621     0.0775203084
   15      S      -5.9301019709    -0.5434345376     0.4137843630
   16      C     -11.0803254445    -0.5632058429     0.7885211257
   17      C     -10.4362799706    -1.7145519857     0.4557896991
   18      C      -9.0598774010    -1.5078556248     0.1713075531
   19      C      -8.6761271682    -0.1999798342     0.2941463488
   20      S     -10.0167602231     0.7893837743     0.7789550605
   21      C      -1.3291835578    -0.3681139216    -0.1911577363
   22      C      -0.9937903923     1.0027455845    -0.1114971794
   23      C       0.3187547455     1.4465879057    -0.1073297867
   24      C       1.3324407229     0.4885465463    -0.1824930414
   25      C       0.9964698860    -0.8818740742    -0.2688825143
   26      C      -0.3158906092    -1.3257166443    -0.2723147251
   27      C      -2.7485649478    -0.5702439476    -0.2069254186
   28      C      -3.4547510007     0.5850171274    -0.1201233058
   29      S      -2.4201293820     2.0027578052    -0.0045312090
   30      C       2.7523207276     0.6904699528    -0.1819092014
   31      C       3.4573403497    -0.4650283558    -0.2710013434
   32      S       2.4216155826    -1.8846835006    -0.3515017513
   33      O       0.6063836140     2.7791919908    -0.0149312089
   34      C       0.8380296161     3.4037948896    -1.2737200781
   35      O      -0.6023862113    -2.6584072668    -0.3662686447
   36      C      -0.8526870767    -3.2805977893     0.8902910775
   37      H      12.1633497160     0.7519261464     0.1005044532
   38      H      10.9525934423     1.7258131844     2.2154586688
   39      H       8.3848778664     1.1488164245     2.2030918456
   40      H       5.1695783304    -2.5168331438    -1.3161387692
   41      H       7.7566523332    -2.2308155221    -1.0003969677
   42      H      -5.1946054531     2.7529985845    -0.8546740968
   43      H      -7.7774900370     2.3639405677    -0.6564574592
   44      H     -12.1205048074    -0.4271954979     1.0421169549
   45      H     -10.9264617650    -2.6771395552     0.4057308923
   46      H      -8.3807598421    -2.2919752975    -0.1370321088
   47      H      -3.2060617342    -1.5443316261    -0.3171867063
   48      H       3.2115258188     1.6682740082    -0.1248300314
   49      H       1.0513258037     4.4511357649    -1.0645285292
   50      H      -0.0466651935     3.3308767287    -1.9150117654
   51      H       1.6937564002     2.9501130456    -1.7850753388
   52      H      -1.0587966968    -4.3292307571     0.6803685900
   53      H      -1.7182677611    -2.8286613540     1.3863696986
   54      H       0.0210547396    -3.2026711462     1.5457383416
 ----------------------------------------------------------------

   14   -3617.3243915150      8.00e-09  Convergence criterion met
 Total energy in the final basis set =    -3617.3243915150

         TDDFT/TDA Excitation Energies
 ---------------------------------------------------

 Excited state   1: excitation energy (eV) =    2.3351
 Total energy for state  1:                 -3617.23857697 au
    Multiplicity: Triplet
    Trans. Mom.:  0.0000 X   0.0000 Y   0.0000 Z
    Strength   :     0.0000000000
    D(  147) --> V(    2) amplitude = -0.3597
    D(  149) --> V(    1) amplitude =  0.8472

 Excited state   2: excitation energy (eV) =    2.6281
 Total energy for state  2:                 -3617.22780964 au
    Multiplicity: Triplet
    Trans. Mom.:  0.0000 X   0.0000 Y   0.0000 Z
    Strength   :     0.0000000000
    D(  147) --> V(    1) amplitude =  0.6050
    D(  148) --> V(    2) amplitude = -0.2415
    D(  149) --> V(    2) amplitude = -0.6025

 Excited state   3: excitation energy (eV) =    2.9697
 Total energy for state  3:                 -3617.21525523 au
    Multiplicity: Triplet
    Trans. Mom.:  0.0000 X   0.0000 Y   0.0000 Z
    Strength   :     0.0000000000
    D(  147) --> V(    2) amplitude = -0.4578
    D(  148) --> V(    1) amplitude =  0.5973
    D(  149) --> V(    3) amplitude =  0.4175

 Excited state   4: excitation energy (eV) =    3.3319
 Total energy for state  4:                 -3617.20194657 au
    Multiplicity: Singlet
    Trans. Mom.:  5.3584 X  -0.5909 Y  -0.0605 Z
    Strength   :     2.3725585257
    D(  147) --> V(    2) amplitude = -0.3109
    D(  149) --> V(    1) amplitude =  0.9209

 Excited state   5: excitation energy (eV) =    3.4268
 Total energy for state  5:                 -3617.19845784 au
    Multiplicity: Triplet
    Trans. Mom.:  0.0000 X   0.0000 Y   0.0000 Z
    Strength   :     0.0000000000
    D(  145) --> V(    1) amplitude =  0.3259
    D(  146) --> V(    2) amplitude = -0.3355
    D(  147) --> V(    3) amplitude =  0.4405
    D(  148) --> V(    2) amplitude = -0.2728
    D(  149) --> V(    5) amplitude = -0.4235

 Excited state   6: excitation energy (eV) =    3.4839
 Total energy for state  6:                 -3617.19636165 au
    Multiplicity: Triplet
    Trans. Mom.:  0.0000 X   0.0000 Y   0.0000 Z
    Strength   :     0.0000000000
    D(  146) --> V(    1) amplitude = -0.4214
    D(  147) --> V(    5) amplitude =  0.2773
    D(  148) --> V(    1) amplitude =  0.5616
    D(  148) --> V(    3) amplitude = -0.3876
    D(  149) --> V(    3) amplitude = -0.2244

 Excited state   7: excitation energy (eV) =    3.8296
 Total energy for state  7:                 -3617.18365534 au
    Multiplicity: Triplet
    Trans. Mom.:  0.0000 X   0.0000 Y   0.0000 Z
    Strength   :     0.0000000000
    D(  139) --> V(    1) amplitude = -0.2273
    D(  148) --> V(    4) amplitude = -0.3318
    D(  148) --> V(    6) amplitude =  0.3733
    D(  149) --> V(    4) amplitude =  0.2822
    D(  149) --> V(    6) amplitude = -0.3337

 Excited state   8: excitation energy (eV) =    3.9029
 Total energy for state  8:                 -3617.18096155 au
    Multiplicity: Singlet
    Trans. Mom.: -0.5246 X  -0.2719 Y  -0.3769 Z
    Strength   :     0.0469644401
    D(  147) --> V(    1) amplitude = -0.5924
    D(  148) --> V(    1) amplitude = -0.2679
    D(  149) --> V(    2) amplitude =  0.6456

 Excited state   9: excitation energy (eV) =    3.9070
 Total energy for state  9:                 -3617.18081066 au
    Multiplicity: Singlet
    Trans. Mom.:  1.3527 X   1.0362 Y  -0.0999 Z
    Strength   :     0.2788634919
    D(  148) --> V(    1) amplitude =  0.8196
    D(  149) --> V(    2) amplitude =  0.2197

 Excited state  10: excitation energy (eV) =    3.9648
 Total energy for state 10:                 -3617.17868730 au
    Multiplicity: Triplet
    Trans. Mom.:  0.0000 X   0.0000 Y   0.0000 Z
    Strength   :     0.0000000000
    D(  146) --> V(    3) amplitude = -0.2632
    D(  147) --> V(    5) amplitude =  0.2340
    D(  149) --> V(   12) amplitude = -0.2296

 Excited state  11: excitation energy (eV) =    3.9680
 Total energy for state 11:                 -3617.17856961 au
    Multiplicity: Triplet
    Trans. Mom.:  0.0000 X   0.0000 Y   0.0000 Z
    Strength   :     0.0000000000
    D(  140) --> V(    1) amplitude = -0.2915
    D(  145) --> V(    1) amplitude =  0.2355
    D(  148) --> V(    2) amplitude = -0.3283
    D(  148) --> V(    5) amplitude =  0.2562

 Excited state  12: excitation energy (eV) =    4.1493
 Total energy for state 12:                 -3617.17190681 au
    Multiplicity: Triplet
    Trans. Mom.:  0.0000 X   0.0000 Y   0.0000 Z
    Strength   :     0.0000000000
    D(  141) --> V(    1) amplitude =  0.5112
    D(  142) --> V(    2) amplitude =  0.5289
    D(  145) --> V(    1) amplitude =  0.3183

 Excited state  13: excitation energy (eV) =    4.1534
 Total energy for state 13:                 -3617.17175588 au
    Multiplicity: Triplet
    Trans. Mom.:  0.0000 X   0.0000 Y   0.0000 Z
    Strength   :     0.0000000000
    D(  141) --> V(    2) amplitude =  0.4606
    D(  142) --> V(    1) amplitude =  0.6043
    D(  144) --> V(    1) amplitude = -0.2397
    D(  145) --> V(    2) amplitude =  0.3522

 Excited state  14: excitation energy (eV) =    4.5281
 Total energy for state 14:                 -3617.15798685 au
    Multiplicity: Singlet
    Trans. Mom.:  0.1560 X   0.1042 Y   0.0534 Z
    Strength   :     0.0042213359
    D(  147) --> V(    1) amplitude =  0.5276
    D(  148) --> V(    2) amplitude = -0.4473
    D(  149) --> V(    2) amplitude =  0.6123

 Excited state  15: excitation energy (eV) =    4.5803
 Total energy for state 15:                 -3617.15606877 au
    Multiplicity: Singlet
    Trans. Mom.: -1.2096 X  -0.8252 Y   0.0408 Z
    Strength   :     0.2407950231
    D(  146) --> V(    1) amplitude = -0.4140
    D(  147) --> V(    2) amplitude =  0.4950
    D(  148) --> V(    3) amplitude = -0.2843
    D(  149) --> V(    3) amplitude = -0.4016
    D(  149) --> V(    4) amplitude = -0.2261
    D(  149) --> V(    6) amplitude =  0.2217

 Excited state  16: excitation energy (eV) =    4.8237
 Total energy for state 16:                 -3617.14712358 au
    Multiplicity: Singlet
    Trans. Mom.: -0.2513 X  -0.0340 Y  -0.0163 Z
    Strength   :     0.0076296310
    D(  145) --> V(    1) amplitude = -0.3431
    D(  147) --> V(    1) amplitude =  0.3258
    D(  147) --> V(    3) amplitude = -0.4082
    D(  148) --> V(    2) amplitude =  0.4641
    D(  149) --> V(    5) amplitude =  0.3773

 Excited state  17: excitation energy (eV) =    4.8581
 Total energy for state 17:                 -3617.14586101 au
    Multiplicity: Singlet
    Trans. Mom.: -0.8212 X  -0.1532 Y   0.0386 Z
    Strength   :     0.0832330674
    D(  147) --> V(    5) amplitude = -0.2494
    D(  148) --> V(    1) amplitude = -0.2899
    D(  149) --> V(    3) amplitude =  0.5306
    D(  149) --> V(    4) amplitude = -0.3666
    D(  149) --> V(    6) amplitude =  0.3413

 Excited state  18: excitation energy (eV) =    5.0454
 Total energy for state 18:                 -3617.13897723 au
    Multiplicity: Singlet
    Trans. Mom.: -0.1288 X  -0.0384 Y   0.0191 Z
    Strength   :     0.0022767465
    D(  140) --> V(    1) amplitude =  0.2739
    D(  141) --> V(    1) amplitude =  0.2630
    D(  146) --> V(    2) amplitude = -0.3509
    D(  147) --> V(    1) amplitude =  0.2246
    D(  147) --> V(    3) amplitude =  0.2330
    D(  148) --> V(    2) amplitude =  0.4379
    D(  148) --> V(    5) amplitude = -0.3057
    D(  149) --> V(    5) amplitude = -0.3550

 Excited state  19: excitation energy (eV) =    5.1210
 Total energy for state 19:                 -3617.13619640 au
    Multiplicity: Singlet
    Trans. Mom.:  0.2125 X   0.2974 Y  -0.0029 Z
    Strength   :     0.0167604844
    D(  146) --> V(    1) amplitude = -0.4590
    D(  149) --> V(    3) amplitude =  0.3084
    D(  149) --> V(    4) amplitude =  0.5091
    D(  149) --> V(    5) amplitude = -0.2501

 Excited state  20: excitation energy (eV) =    5.1340
 Total energy for state 20:                 -3617.13572032 au
    Multiplicity: Singlet
    Trans. Mom.: -0.3030 X  -0.4103 Y   0.0617 Z
    Strength   :     0.0332018236
    D(  146) --> V(    1) amplitude =  0.2381
    D(  148) --> V(    6) amplitude = -0.2218
    D(  149) --> V(    4) amplitude =  0.2869
    D(  149) --> V(    6) amplitude =  0.5983
    D(  149) --> V(    8) amplitude =  0.2551

 ---------------------------------------------------

                    Orbital Energies (a.u.)
 --------------------------------------------------------------

 Alpha MOs
 -- Occupied --
-88.9630 -88.9629 -88.9605 -88.9604 -88.9583 -88.9581 -19.2263 -19.2262
-10.3143 -10.3142 -10.2990 -10.2989 -10.2943 -10.2940 -10.2930 -10.2929
-10.2914 -10.2914 -10.2908 -10.2904 -10.2862 -10.2861 -10.2749 -10.2747
-10.2684 -10.2684 -10.2588 -10.2587 -10.2585 -10.2581 -10.2565 -10.2562
-10.2544 -10.2541 -10.2535 -10.2533  -8.0405  -8.0404  -8.0379  -8.0377
 -8.0356  -8.0354  -6.0039  -6.0037  -6.0011  -6.0010  -6.0004  -6.0002
 -5.9994  -5.9992  -5.9976  -5.9976  -5.9975  -5.9974  -5.9957  -5.9955
 -5.9952  -5.9950  -5.9920  -5.9918  -1.1501  -1.1488  -0.9981  -0.9928
 -0.9859  -0.9754  -0.9661  -0.9594  -0.9071  -0.8682  -0.8646  -0.8520
 -0.8372  -0.8333  -0.8251  -0.8210  -0.8152  -0.8122  -0.7959  -0.7950
 -0.7826  -0.7705  -0.7429  -0.7154  -0.6836  -0.6797  -0.6601  -0.6592
 -0.6516  -0.6339  -0.6310  -0.6271  -0.6089  -0.6072  -0.6034  -0.6007
 -0.5892  -0.5863  -0.5789  -0.5698  -0.5489  -0.5405  -0.5386  -0.5365
 -0.5293  -0.5238  -0.5075  -0.4929  -0.4898  -0.4886  -0.4871  -0.4841
 -0.4813  -0.4806  -0.4770  -0.4717  -0.4697  -0.4667  -0.4635  -0.4572
 -0.4562  -0.4555  -0.4482  -0.4420  -0.4388  -0.4360  -0.4278  -0.4259
 -0.4225  -0.4154  -0.4094  -0.4073  -0.4036  -0.4029  -0.3824  -0.3584
 -0.3557  -0.3533  -0.3432  -0.3332  -0.3214  -0.3200  -0.3159  -0.3158
 -0.3147  -0.2980  -0.2651  -0.2644  -0.2395

          Ground-State Mulliken Net Atomic Charges

     Atom                 Charge (a.u.)
  ----------------------------------------
      1 C                    -0.134261
      2 C                    -0.183725
      3 C                    -0.516457
      4 C                     0.517479
      5 S                    -0.201939
      6 C                     0.447420
      7 C                    -0.296216
      8 C                    -0.412324
      9 C                     0.411382
     10 S                    -0.344927
     11 C                     0.366739
     12 C                    -0.269035
     13 C                    -0.393089
     14 C                     0.336662
     15 S                    -0.301864
     16 C                    -0.129838
     17 C                    -0.174824
     18 C                    -0.525221
     19 C                     0.577810
     20 S                    -0.206756
     21 C                     0.403603
     22 C                     0.366304
     23 C                    -0.165048
     24 C                     0.360259
     25 C                     0.323095
     26 C                    -0.123409
     27 C                    -0.292847
     28 C                     0.468278
     29 S                    -0.409415
     30 C                    -0.187448
     31 C                     0.451497
     32 S                    -0.439300
     33 O                    -0.598129
     34 C                    -0.503215
     35 O                    -0.613220
     36 C                    -0.472092
     37 H                     0.187762
     38 H                     0.146122
     39 H                     0.131791
     40 H                     0.106085
     41 H                     0.108406
     42 H                     0.105323
     43 H                     0.107083
     44 H                     0.185155
     45 H                     0.142551
     46 H                     0.114650
     47 H                     0.145732
     48 H                     0.150621
     49 H                     0.186657
     50 H                     0.207337
     51 H                     0.227046
     52 H                     0.187351
     53 H                     0.212648
     54 H                     0.211753
  ----------------------------------------
  Sum of atomic charges =     0.000000

                    Cartesian Multipole Moments
 -----------------------------------------------------------------
    Charge (ESU x 10^10)
                 0.0000
    Dipole Moment (Debye)
         X      -0.0639      Y      -0.3518      Z      -0.1361
       Tot       0.3825
    Quadrupole Moments (Debye-Ang)
        XX    -191.9517     XY      11.4774     YY    -234.5817
        XZ       2.8989     YZ      -7.1482     ZZ    -254.0959

 Total job time:  44834.94s(wall), 1039189.83s(cpu)
        *  Thank you very much for using Q-Chem.  Have a nice day.  *
