 Q-Chem 5.3, Q-Chem, Inc., Pleasanton, CA (2020)
 Q-Chem 5.3.1 for Intel X86 EM64T Linux

User input:
--------------------------------------------------------------
$comment
 TDDFT calculation
$end

$molecule
0 1
C         -1.19706       -0.84098        0.04162
C         -0.21153       -1.79932        0.02794
C          1.09428       -1.23220        0.15782
C          1.07107        0.14591        0.27326
S         -0.55547        0.72556        0.22057
C          3.46260        3.17326        0.25101
C          4.23624        2.10429       -0.16068
C          3.49066        0.87254       -0.11285
C          2.19480        1.05468        0.34062
S          2.04835        2.60949        1.04455
C          3.61403       13.10949        0.13008
C          2.37141       13.72039        0.10070
C          2.44438       15.13728        0.07585
C          3.74321       15.60784        0.10929
S          4.85154       14.29032        0.18135
C          5.31315       19.18776        0.08007
C          3.95016       19.34690        0.00848
C          3.27319       18.09349        0.01074
C          4.13179       17.00574        0.08632
S          5.76353       17.54149        0.14871
C          3.26917        9.40076       -0.20529
C          4.59124        9.27771        0.21672
C          5.19950        8.00580        0.37089
C          4.44115        6.81972        0.14998
C          3.13682        6.97766       -0.31900
C          2.54578        8.23254       -0.48597
C          2.87326       10.76934       -0.29428
C          3.83409       11.67713        0.08871
S          5.27796       10.85683        0.49015
C          4.72486        5.40482        0.36027
C          3.65074        4.58403        0.07176
S          2.39026        5.47626       -0.65503
O          6.50079        7.98492        0.85952
C          7.39310        7.09930        0.18743
O          1.26492        8.28208       -1.02740
C          0.29896        8.93827       -0.20808
H         -2.26599       -0.97900       -0.04820
H         -0.41725       -2.85680       -0.08007
H          2.00479       -1.81733        0.15722
H          5.21597        2.20044       -0.60879
H          3.85925       -0.06313       -0.51802
H          1.43129       13.18337        0.07990
H          1.56881       15.77246        0.03014
H          6.06945       19.96005        0.09534
H          3.45927       20.31112       -0.04311
H          2.19488       18.00755       -0.04112
H          1.88849       11.07307       -0.61671
H          5.64557        5.02392        0.77653
H          8.36209        7.59866        0.08633
H          7.05972        6.80730       -0.81431
H          7.55130        6.21399        0.81096
H         -0.59965        8.31594       -0.16367
H          0.01671        9.87916       -0.69158
H          0.63624        9.13144        0.81620
$end

$rem
JOBTYPE        opt
METHOD         wB97X-D
BASIS          6-311G(d,p)
$end

--------------------------------------------------------------

   15   -3617.1225333941      6.16e-09  Convergence criterion met
 Total energy in the final basis set =    -3617.1225333941
   12   -3617.1427678662      8.83e-09  Convergence criterion met
 Total energy in the final basis set =    -3617.1427678662
   13   -3617.1547660922      4.25e-09  Convergence criterion met
 Total energy in the final basis set =    -3617.1547660922
   12   -3617.1597868576      8.18e-09  Convergence criterion met
 Total energy in the final basis set =    -3617.1597868576
   12   -3617.1615097736      8.25e-09  Convergence criterion met
 Total energy in the final basis set =    -3617.1615097736
   11   -3617.1618782664      7.80e-09  Convergence criterion met
 Total energy in the final basis set =    -3617.1618782664
   11   -3617.1622064649      9.21e-09  Convergence criterion met
 Total energy in the final basis set =    -3617.1622064649
   12   -3617.1626476012      5.63e-09  Convergence criterion met
   11   -3617.1680519612      9.32e-09  Convergence criterion met
 Total energy in the final basis set =    -3617.1680519612
   12   -3617.1681843171      5.00e-09  Convergence criterion met
 Total energy in the final basis set =    -3617.1681843171
   11   -3617.1682431715      4.82e-09  Convergence criterion met
 Total energy in the final basis set =    -3617.1682431715
   10   -3617.1682712601      7.29e-09  Convergence criterion met
 Total energy in the final basis set =    -3617.1682712601
    9   -3617.1682783018      9.90e-09  Convergence criterion met
 Total energy in the final basis set =    -3617.1682783018
    9   -3617.1682800972      4.17e-09  Convergence criterion met
 Total energy in the final basis set =    -3617.1682800972

             Standard Nuclear Orientation (Angstroms)
    I     Atom           X                Y                Z
 ----------------------------------------------------------------
    1      C      11.0300667212    -1.2169705366    -0.1937477829
    2      C      11.1453429435     0.0170263932     0.3678343355
    3      C       9.9069206241     0.7115761662     0.4190521143
    4      C       8.8684243252    -0.0020600690    -0.1134866989
    5      S       9.4153876203    -1.5466699882    -0.6864620216
    6      C       4.9943011465     0.5852263645    -0.3043153471
    7      C       5.6170450308     1.7704340075    -0.5868943795
    8      C       7.0298398336     1.6805868742    -0.5525642176
    9      C       7.4831390480     0.4269482910    -0.2448723199
   10      S       6.1578061926    -0.6583272421     0.0254942684
   11      C      -4.8002708656    -0.7404337527     0.1900569517
   12      C      -5.4231766720    -1.9261953965     0.4699499876
   13      C      -6.8359636236    -1.8362589900     0.4354622975
   14      C      -7.2891933947    -0.5818589525     0.1306437375
   15      S      -5.9637512725     0.5038872792    -0.1371591595
   16      C     -10.8359090106     1.0626070356     0.0812603827
   17      C     -10.9515010694    -0.1712040388    -0.4806707631
   18      C      -9.7131982836    -0.8658745890    -0.5325320794
   19      C      -8.6744483267    -0.1525646581     0.0000217527
   20      S      -9.2210635329     1.3918787310     0.5737112208
   21      C      -1.0845811518    -0.8169467050    -0.1836050852
   22      C      -1.0925063676     0.5217950937     0.2712548994
   23      C       0.0664200417     1.2698145400     0.4029478432
   24      C       1.2786328626     0.6619561878     0.0694600465
   25      C       1.2865598016    -0.6768934437    -0.3854304188
   26      C       0.1277330101    -1.4249511209    -0.5168752533
   27      C      -2.4098133661    -1.3594863163    -0.2685468041
   28      C      -3.3687772478    -0.4887057295     0.1330204670
   29      S      -2.7100645409     1.0609517238     0.6402968444
   30      C       2.6039002592     1.2044073553     0.1543350128
   31      C       3.5627714562     0.3335446162    -0.2472087106
   32      S       2.9040529047    -1.2160573869    -0.7546414598
   33      O       0.0174594965     2.5562466631     0.8614262226
   34      C       0.0119313497     3.5332650008    -0.1739368278
   35      O       0.1770362159    -2.7114897682    -0.9749178290
   36      C       0.1788379801    -3.6881185426     0.0609353377
   37      H      11.8002181549    -1.9567210301    -0.3498529964
   38      H      12.0770146925     0.4143209763     0.7469932491
   39      H       9.7760554535     1.6927130456     0.8557869257
   40      H       5.0708343910     2.6660025791    -0.8512330092
   41      H       7.6988666767     2.4981960198    -0.7846727133
   42      H      -4.8771510231    -2.8224857996     0.7322393894
   43      H      -7.5050489541    -2.6542805536     0.6659296160
   44      H     -11.6059414494     1.8023734793     0.2378592163
   45      H     -11.8833264217    -0.5681635050    -0.8598035202
   46      H      -9.5824685154    -1.8467212836    -0.9699535027
   47      H      -2.6278168340    -2.3456127208    -0.6549346696
   48      H       2.8221403223     2.1905322674     0.5405634688
   49      H      -0.0492111407     4.5034315510     0.3170100987
   50      H      -0.8520157807     3.4003881978    -0.8334301633
   51      H       0.9305930666     3.4810658024    -0.7684942461
   52      H       0.2436564248    -4.6584029292    -0.4292839377
   53      H      -0.7427031162    -3.6369350289     0.6510953291
   54      H       1.0393576364    -3.5534795224     0.7244862235
 ----------------------------------------------------------------

    8   -3617.1682806579      4.98e-09  Convergence criterion met
 Total energy in the final basis set =    -3617.1682806579
 Final energy is   -3617.16828065790
 **  OPTIMIZATION CONVERGED  **

                    Orbital Energies (a.u.)
 --------------------------------------------------------------

 Alpha MOs
 -- Occupied --
-89.0478 -89.0478 -89.0451 -89.0451 -89.0403 -89.0402 -19.2717 -19.2716
-10.3534 -10.3534 -10.3393 -10.3393 -10.3365 -10.3365 -10.3359 -10.3358
-10.3349 -10.3349 -10.3327 -10.3327 -10.3261 -10.3261 -10.3184 -10.3183
-10.3076 -10.3076 -10.2994 -10.2994 -10.2985 -10.2985 -10.2979 -10.2979
-10.2958 -10.2958 -10.2952 -10.2952  -8.0939  -8.0939  -8.0913  -8.0912
 -8.0861  -8.0861  -6.0426  -6.0426  -6.0400  -6.0399  -6.0389  -6.0389
 -6.0361  -6.0361  -6.0354  -6.0354  -6.0353  -6.0353  -6.0329  -6.0329
 -6.0315  -6.0315  -6.0268  -6.0268  -1.1723  -1.1710  -1.0189  -1.0147
 -1.0075  -0.9971  -0.9888  -0.9813  -0.9277  -0.8904  -0.8851  -0.8751
 -0.8542  -0.8538  -0.8490  -0.8431  -0.8397  -0.8362  -0.8190  -0.8182
 -0.8053  -0.7916  -0.7654  -0.7366  -0.7035  -0.6969  -0.6841  -0.6828
 -0.6755  -0.6615  -0.6588  -0.6459  -0.6335  -0.6312  -0.6248  -0.6233
 -0.6086  -0.6078  -0.6017  -0.5886  -0.5671  -0.5643  -0.5617  -0.5565
 -0.5504  -0.5454  -0.5336  -0.5136  -0.5108  -0.5104  -0.5103  -0.5060
 -0.5034  -0.5014  -0.4991  -0.4928  -0.4923  -0.4907  -0.4831  -0.4831
 -0.4730  -0.4684  -0.4679  -0.4616  -0.4599  -0.4565  -0.4473  -0.4456
 -0.4435  -0.4406  -0.4356  -0.4320  -0.4261  -0.4244  -0.3982  -0.3759
 -0.3728  -0.3715  -0.3590  -0.3532  -0.3411  -0.3410  -0.3377  -0.3377
 -0.3361  -0.3188  -0.2876  -0.2841  -0.2600

          Ground-State Mulliken Net Atomic Charges

     Atom                 Charge (a.u.)
  ----------------------------------------
      1 C                    -0.295555
      2 C                    -0.103899
      3 C                    -0.040673
      4 C                    -0.268544
      5 S                     0.300400
      6 C                    -0.242214
      7 C                    -0.039322
      8 C                    -0.048784
      9 C                    -0.206845
     10 S                     0.335407
     11 C                    -0.242288
     12 C                    -0.039285
     13 C                    -0.048827
     14 C                    -0.206861
     15 S                     0.335459
     16 C                    -0.295563
     17 C                    -0.103912
     18 C                    -0.040681
     19 C                    -0.268493
     20 S                     0.300404
     21 C                     0.027536
     22 C                    -0.210423
     23 C                     0.147354
     24 C                     0.027527
     25 C                    -0.210519
     26 C                     0.147327
     27 C                    -0.001564
     28 C                    -0.239943
     29 S                     0.287156
     30 C                    -0.001543
     31 C                    -0.239931
     32 S                     0.287164
     33 O                    -0.373592
     34 C                    -0.145206
     35 O                    -0.373580
     36 C                    -0.145208
     37 H                     0.149135
     38 H                     0.118602
     39 H                     0.119696
     40 H                     0.117763
     41 H                     0.119722
     42 H                     0.117728
     43 H                     0.119729
     44 H                     0.149134
     45 H                     0.118605
     46 H                     0.119698
     47 H                     0.127561
     48 H                     0.127483
     49 H                     0.132078
     50 H                     0.120832
     51 H                     0.113410
     52 H                     0.132111
     53 H                     0.113406
     54 H                     0.120828
  ----------------------------------------
  Sum of atomic charges =     0.000000

                    Cartesian Multipole Moments
 -----------------------------------------------------------------
    Charge (ESU x 10^10)
                 0.0000
    Dipole Moment (Debye)
         X      -0.0045      Y      -0.0001      Z      -0.0016
       Tot       0.0048
    Quadrupole Moments (Debye-Ang)
        XX    -190.2904     XY      15.0923     YY    -221.5149
        XZ       6.0609     YZ      -4.7120     ZZ    -262.4378

 Total job time:  2932.63s(wall), 61335.06s(cpu)
        *  Thank you very much for using Q-Chem.  Have a nice day.  *
